 Gaussian 03, Revision D.01,
 Gaussian 03:  AM64L-G03RevD.01 13-Oct-2005

 -------------------------
 # scan b3lyp/cbsb7 nosymm
 -------------------------

 -------------------
 Title Card Required
 -------------------
 Symbolic Z-matrix:
 Charge =  0 Multiplicity = 1

 SCF Done:  E(RB+HF-LYP) =  -307.729940574     A.U. after   13 cycles

 Alpha  occ. eigenvalues --  -19.13496 -19.11379 -10.23774 -10.22249 -10.22226
 Alpha  occ. eigenvalues --  -10.17708  -1.08062  -1.02057  -0.77347  -0.69314
 Alpha  occ. eigenvalues --   -0.67011  -0.57990  -0.52640  -0.49984  -0.46176
 Alpha  occ. eigenvalues --   -0.45199  -0.42292  -0.41456  -0.39964  -0.37891
 Alpha  occ. eigenvalues --   -0.33765  -0.31278  -0.28830  -0.27162
 Alpha virt. eigenvalues --    0.04105   0.05774   0.06987   0.07170   0.09369
 Alpha virt. eigenvalues --    0.10281   0.11332   0.12479   0.13692   0.15596
 Alpha virt. eigenvalues --    0.18166   0.19988   0.24737   0.26907   0.30148

 Mulliken atomic charges:
              1
     1  C    0.097348
     2  H    0.111277
     3  H    0.095928
     4  C   -0.136299
     5  C   -0.016018
     6  H    0.121954
     7  H    0.112046
     8  C   -0.225634
     9  H    0.114108
    10  H    0.114837
    11  H    0.112893
    12  O   -0.399256
    13  H    0.239896
    14  O   -0.343079
 Sum of Mulliken charges=   0.00000

 Dipole moment (field-independent basis, Debye):
    X=     0.1736    Y=    -1.7333    Z=     1.0072  Tot=     2.0121
 Quadrupole moment (field-independent basis, Debye-Ang):
   XX=   -34.3492   YY=   -36.8005   ZZ=   -39.6903
   XY=     1.3186   XZ=    -0.9026   YZ=    -2.8215

 SCF Done:  E(RB+HF-LYP) =  -307.729463486     A.U. after   11 cycles
 SCF Done:  E(RB+HF-LYP) =  -307.727955381     A.U. after   11 cycles
 SCF Done:  E(RB+HF-LYP) =  -307.725496638     A.U. after   11 cycles
 SCF Done:  E(RB+HF-LYP) =  -307.722498901     A.U. after   11 cycles
 SCF Done:  E(RB+HF-LYP) =  -307.719603664     A.U. after   12 cycles
 SCF Done:  E(RB+HF-LYP) =  -307.717416661     A.U. after   12 cycles
 SCF Done:  E(RB+HF-LYP) =  -307.716263190     A.U. after   11 cycles
 SCF Done:  E(RB+HF-LYP) =  -307.716078084     A.U. after   11 cycles
 SCF Done:  E(RB+HF-LYP) =  -307.716547991     A.U. after   11 cycles
 SCF Done:  E(RB+HF-LYP) =  -307.719931867     A.U. after   11 cycles
 SCF Done:  E(RB+HF-LYP) =  -307.720556215     A.U. after   11 cycles
 SCF Done:  E(RB+HF-LYP) =  -307.721475566     A.U. after   11 cycles
 SCF Done:  E(RB+HF-LYP) =  -307.722668700     A.U. after   11 cycles
 SCF Done:  E(RB+HF-LYP) =  -307.724078168     A.U. after   11 cycles
 SCF Done:  E(RB+HF-LYP) =  -307.725620624     A.U. after   11 cycles
 SCF Done:  E(RB+HF-LYP) =  -307.727166430     A.U. after   11 cycles
 SCF Done:  E(RB+HF-LYP) =  -307.728543402     A.U. after   11 cycles
 SCF Done:  E(RB+HF-LYP) =  -307.729548578     A.U. after   11 cycles

                         Z-Matrix orientation:
 ---------------------------------------------------------------------
 Center     Atomic     Atomic              Coordinates (Angstroms)
 Number     Number      Type              X           Y           Z
 ---------------------------------------------------------------------
    1          6             0        0.000000    0.000000    0.000000
    2          1             0        0.000000    0.000000    1.093772
    3          1             0        1.049418    0.000000   -0.333692
    4          6             0       -0.667098   -1.266230   -0.521064
    5          6             0       -2.117040   -1.265556   -0.744708
    6          1             0       -2.692416   -0.380654   -0.491996
    7          1             0       -2.658635   -2.207936   -0.742068
    8          6             0        0.081726   -2.554287   -0.283875
    9          1             0       -0.449371   -3.396154   -0.730533
   10          1             0        1.079754   -2.504923   -0.729069
   11          1             0        0.197018   -2.744304    0.787723
   12          8             0       -0.670245    1.171618   -0.419379
   13          1             0       -0.834786    1.053097   -1.364545
   14          8             0       -1.203789   -1.095661   -1.850650
 ---------------------------------------------------------------------

 SCF Done:  E(RB+HF-LYP) =  -307.729940574     A.U. after   11 cycles
 Normal termination of Gaussian 03 at Tue Jun 18 15:54:02 2013.
